============================== echo of input deck ==============================
echo
start mol
title "mol"

geometry nocenter noautosym noautoz
  load mol.xyz
end

constraints
  fix atom 33:48
end

charge 0
basis noprint
  * library aug-cc-pVDZ
end

#ET products:

scf
   doublet; uhf; maxiter 200; vectors input fragment hBN_q0.movecs PFCA_q0.movecs output product.movecs
end

task scf

#ET reactants:
scf
    doublet; uhf; maxiter 200; vectors input fragment hBN_q1.movecs PFCA_q_1.movecs output  reactant.movecs
end
task scf

et
   vectors reactants reactant.movecs
   vectors products product.movecs
end

task scf et

================================================================================

 Output coordinates in angstroms (scale by  1.889725989 to convert to a.u.)

  No.       Tag          Charge          X              Y              Z
 ---- ---------------- ---------- -------------- -------------- --------------
    1 B                    5.0000     1.22482800     0.70544180     1.66529600
    2 B                    5.0000     2.49140800     2.87636500     1.66529700
    3 B                    5.0000     3.74530200     5.04643100     1.66529400
    4 B                    5.0000     5.00798100     7.21225100     1.66530400
    5 B                    5.0000     2.48158600    -1.47534500     1.66529900
    6 B                    5.0000     3.74880100     0.70058720     1.66530300
    7 B                    5.0000     5.00798100     2.87350100     1.66530100
    8 B                    5.0000     6.27065500     5.04643300     1.66529700
    9 B                    5.0000     3.74173300    -3.65700700     1.66530600
   10 B                    5.0000     5.00798000    -1.47635600     1.66530800
   11 B                    5.0000     6.26716100     0.70058550     1.66530100
   12 B                    5.0000     7.52455400     2.87636700     1.66530800
   13 B                    5.0000     5.00797900    -5.84681900     1.66529400
   14 B                    5.0000     6.27422600    -3.65700700     1.66530200
   15 B                    5.0000     7.53437700    -1.47534800     1.66530400
   16 B                    5.0000     8.79113400     0.70544180     1.66529200
   17 N                    7.0000     1.24878700    -0.71397690     1.66529800
   18 N                    7.0000     2.48509200     1.43891600     1.66530100
   19 N                    7.0000     3.74546500     3.60800600     1.66530100
   20 N                    7.0000     5.00797800     5.78068600     1.66529600
   21 N                    7.0000     2.50945800    -2.90507700     1.66529700
   22 N                    7.0000     3.74755800    -0.74286160     1.66530100
   23 N                    7.0000     5.00798100     1.43124900     1.66530900
   24 N                    7.0000     6.27049600     3.60800700     1.66530100
   25 N                    7.0000     3.77188800    -5.08906400     1.66530400
   26 N                    7.0000     5.00798000    -2.92141000     1.66529900
   27 N                    7.0000     6.26840400    -0.74286420     1.66530100
   28 N                    7.0000     7.53087000     1.43891700     1.66530100
   29 N                    7.0000     5.00798000    -7.26663600     1.66530200
   30 N                    7.0000     6.24407100    -5.08906400     1.66529700
   31 N                    7.0000     7.50650200    -2.90508000     1.66529600
   32 N                    7.0000     8.76717400    -0.71397700     1.66530100
   33 H                    1.0000     0.36401050    -1.21981500     1.66529400
   34 H                    1.0000     1.62497200    -3.41050400     1.66530000
   35 H                    1.0000     2.88694700    -5.59241300     1.66530400
   36 H                    1.0000     5.86055500    -7.80962500     1.66530100
   37 H                    1.0000     4.15540900    -7.80963200     1.66530100
   38 H                    1.0000     7.12901500    -5.59240900     1.66530000
   39 H                    1.0000     8.39098700    -3.41050900     1.66529800
   40 H                    1.0000     9.65195200    -1.21981300     1.66530000
   41 H                    1.0000     0.18561930     1.30829800     1.66529900
   42 H                    1.0000     1.45597000     3.48444800     1.66529900
   43 H                    1.0000     2.70954600     5.65234000     1.66530100
   44 H                    1.0000     6.05516200     7.80821400     1.66530100
   45 H                    1.0000     3.96081300     7.80824000     1.66530300
   46 H                    1.0000     7.30641400     5.65233600     1.66530000
   47 H                    1.0000     8.55999100     3.48445100     1.66530300
   48 H                    1.0000     9.83034400     1.30829900     1.66530100
   49 C                    6.0000     4.91133900     0.80862370     7.74300400
   50 C                    6.0000     5.03363700     0.52945470     6.23668400
   51 C                    6.0000     4.41959200    -0.82298390     5.80114400
   52 F                    9.0000     3.62222200     0.88589670     8.10870400
   53 F                    9.0000     5.50919100     1.96816000     8.06573400
   54 F                    9.0000     5.49807900    -0.17672230     8.44423400
   55 F                    9.0000     4.42403900     1.56323900     5.58592400
   56 F                    9.0000     6.36145300     0.57895770     5.93291400
   57 O                    8.0000     3.18750000    -0.83332820     5.60715400
   58 O                    8.0000     5.19917100    -1.79046500     5.70107400

         Total SCF energy =  -2037.926656260425
         Total SCF energy =  -2037.818838436428

 Vector  288  Occ=0.000000D+00  E= 3.488781D-01

 Vector  289  Occ=0.000000D+00  E= 3.499386D-01

 Vector  290  Occ=0.000000D+00  E= 3.521325D-01

 Vector  291  Occ=0.000000D+00  E= 3.527578D-01

 Vector  292  Occ=0.000000D+00  E= 3.554774D-01

 Vector  293  Occ=0.000000D+00  E= 3.608218D-01

 Vector  294  Occ=0.000000D+00  E= 3.638892D-01

 Vector  295  Occ=0.000000D+00  E= 3.649784D-01

 Vector  296  Occ=0.000000D+00  E= 3.655095D-01

 Vector  297  Occ=0.000000D+00  E= 3.675686D-01

 Vector  298  Occ=0.000000D+00  E= 3.706517D-01

 Vector  299  Occ=0.000000D+00  E= 3.748667D-01

 Vector  300  Occ=0.000000D+00  E= 3.751798D-01

 Vector  301  Occ=0.000000D+00  E= 3.767441D-01

 Vector  302  Occ=0.000000D+00  E= 3.777474D-01

 Vector  303  Occ=0.000000D+00  E= 3.794041D-01

 Vector  304  Occ=0.000000D+00  E= 3.843035D-01

 Vector  305  Occ=0.000000D+00  E= 3.855524D-01

 Vector  306  Occ=0.000000D+00  E= 3.862722D-01

 Vector  307  Occ=0.000000D+00  E= 3.885246D-01

 Vector  308  Occ=0.000000D+00  E= 3.892665D-01

 Vector  309  Occ=0.000000D+00  E= 3.915519D-01

 Vector  310  Occ=0.000000D+00  E= 3.923076D-01

 Vector  311  Occ=0.000000D+00  E= 3.928826D-01

 Vector  312  Occ=0.000000D+00  E= 3.960805D-01

 Vector  313  Occ=0.000000D+00  E= 3.972133D-01

 Vector  314  Occ=0.000000D+00  E= 3.989873D-01

 Vector  315  Occ=0.000000D+00  E= 4.019970D-01

 Vector  316  Occ=0.000000D+00  E= 4.033705D-01

 Vector  317  Occ=0.000000D+00  E= 4.047809D-01

 Vector  318  Occ=0.000000D+00  E= 4.073754D-01

 Vector  319  Occ=0.000000D+00  E= 4.078626D-01

 Vector  320  Occ=0.000000D+00  E= 4.093897D-01

 Vector  321  Occ=0.000000D+00  E= 4.117469D-01

 Vector  322  Occ=0.000000D+00  E= 4.148135D-01

 Vector  323  Occ=0.000000D+00  E= 4.173944D-01

 Vector  324  Occ=0.000000D+00  E= 4.187756D-01

 Vector  325  Occ=0.000000D+00  E= 4.207662D-01

 Vector  326  Occ=0.000000D+00  E= 4.237080D-01

 Vector  327  Occ=0.000000D+00  E= 4.267369D-01

 Vector  328  Occ=0.000000D+00  E= 4.287808D-01

 Vector  329  Occ=0.000000D+00  E= 4.302306D-01

 Vector  330  Occ=0.000000D+00  E= 4.318620D-01

 Vector  331  Occ=0.000000D+00  E= 4.325980D-01

 Vector  332  Occ=0.000000D+00  E= 4.341658D-01

 Vector  333  Occ=0.000000D+00  E= 4.355350D-01

 Vector  334  Occ=0.000000D+00  E= 4.383198D-01

 Vector  335  Occ=0.000000D+00  E= 4.396172D-01

 Vector  336  Occ=0.000000D+00  E= 4.401915D-01

 Vector  337  Occ=0.000000D+00  E= 4.427144D-01

 Vector  338  Occ=0.000000D+00  E= 4.460185D-01

 Vector  339  Occ=0.000000D+00  E= 4.473631D-01

 Vector  340  Occ=0.000000D+00  E= 4.495812D-01

 Vector  341  Occ=0.000000D+00  E= 4.504391D-01

 Vector  342  Occ=0.000000D+00  E= 4.518488D-01

 Vector  343  Occ=0.000000D+00  E= 4.539887D-01

 Vector  344  Occ=0.000000D+00  E= 4.547250D-01

 Vector  345  Occ=0.000000D+00  E= 4.581616D-01

 Vector  346  Occ=0.000000D+00  E= 4.619274D-01

 Vector  347  Occ=0.000000D+00  E= 4.638475D-01

 Vector  348  Occ=0.000000D+00  E= 4.659618D-01

 Vector  349  Occ=0.000000D+00  E= 4.676186D-01

 Vector  350  Occ=0.000000D+00  E= 4.703654D-01

 Vector  351  Occ=0.000000D+00  E= 4.714976D-01

 Vector  352  Occ=0.000000D+00  E= 4.748748D-01

 Vector  353  Occ=0.000000D+00  E= 4.766526D-01

 Vector  354  Occ=0.000000D+00  E= 4.774317D-01

 Vector  355  Occ=0.000000D+00  E= 4.801892D-01

 Vector  356  Occ=0.000000D+00  E= 4.825758D-01

 Vector  357  Occ=0.000000D+00  E= 4.829834D-01

 Vector  358  Occ=0.000000D+00  E= 4.850594D-01

 Vector  359  Occ=0.000000D+00  E= 4.862246D-01

 Vector  360  Occ=0.000000D+00  E= 4.881688D-01

 Vector  361  Occ=0.000000D+00  E= 4.898332D-01

 Vector  362  Occ=0.000000D+00  E= 4.917737D-01

 Vector  363  Occ=0.000000D+00  E= 4.927273D-01

 Vector  364  Occ=0.000000D+00  E= 4.957200D-01

 Vector  365  Occ=0.000000D+00  E= 4.990351D-01

 Vector  366  Occ=0.000000D+00  E= 5.000150D-01

 Vector  367  Occ=0.000000D+00  E= 5.008431D-01

       Multipole analysis of the density wrt the origin
       ------------------------------------------------

     L   x y z        total         alpha         beta         nuclear
     -   - - -        -----         -----         ----         -------
     0   0 0 0      0.000000   -144.000000   -143.000000    287.000000

     1   1 0 0      0.967579  -1349.399466  -1339.989654   2690.356699
     1   0 1 0    -11.825334      1.275945    -11.600668     -1.500611
     1   0 0 1     -6.846435   -837.210087   -834.051962   1664.415614

     2   2 0 0   -151.561637 -14496.144315 -14406.576157  28751.158835
     2   1 1 0   -113.113449     -2.679614   -124.096676     13.662841
     2   1 0 1    -54.325875  -7772.205860  -7742.491446  15460.371430
     2   0 2 0    -35.801977  -5286.487326  -5115.516974  10366.202323
     2   0 1 1    -26.127840   -295.474653   -336.094229    605.441042

 Total times  cpu:     5135.9s     wall:     5191.9s
