============================== echo of input deck ==============================
echo
start mol
title "mol"

geometry nocenter noautosym noautoz
  load mol.xyz
end

charge 0

basis noprint
  * library aug-cc-pVDZ
end

scf
  tol2e 1d-9
  uhf
  doublet
  vectors output PFCA_q0.movecs
end

task scf
================================================================================

 Output coordinates in angstroms (scale by  1.889725989 to convert to a.u.)

  No.       Tag          Charge          X              Y              Z
 ---- ---------------- ---------- -------------- -------------- --------------
    1 C                    6.0000    10.07342542     8.58187654     9.53951937
    2 C                    6.0000    10.05722965     9.84839909    10.44705776
    3 C                    6.0000    10.02390395    11.16994943     9.65116574
    4 F                    9.0000    11.08304547     8.65689104     8.65597063
    5 F                    9.0000    10.23545147     7.48603479    10.29425738
    6 F                    9.0000     8.91797805     8.48155014     8.86506537
    7 F                    9.0000     8.96577751     9.78506450    11.24580842
    8 F                    9.0000    11.17730861     9.83604454    11.20977784
    9 O                    8.0000    11.06267346    11.80504504     9.35078775
   10 O                    8.0000     8.96320442    11.69571888     9.24036373

         Total SCF energy =   -760.561324943957

 Vector   77  Occ=0.000000D+00  E= 3.928473D-01

 Vector   78  Occ=0.000000D+00  E= 4.047328D-01

 Vector   79  Occ=0.000000D+00  E= 4.099804D-01

 Vector   80  Occ=0.000000D+00  E= 4.228781D-01

 Vector   81  Occ=0.000000D+00  E= 4.282707D-01

 Vector   82  Occ=0.000000D+00  E= 4.417221D-01

 Vector   83  Occ=0.000000D+00  E= 4.505407D-01

 Vector   84  Occ=0.000000D+00  E= 4.865415D-01

 Vector   85  Occ=0.000000D+00  E= 4.934653D-01

 Vector   86  Occ=0.000000D+00  E= 5.121899D-01

 Vector   17  Occ=1.000000D+00  E=-1.354432D+00

 Vector   18  Occ=1.000000D+00  E=-1.125752D+00

 Vector   19  Occ=1.000000D+00  E=-1.002489D+00

 Vector   20  Occ=1.000000D+00  E=-9.166512D-01

 Vector   21  Occ=1.000000D+00  E=-8.872335D-01

 Vector   22  Occ=1.000000D+00  E=-8.780420D-01

 Vector   23  Occ=1.000000D+00  E=-8.604800D-01

 Vector   24  Occ=1.000000D+00  E=-8.303835D-01

 Vector   25  Occ=1.000000D+00  E=-7.990574D-01

 Vector   26  Occ=1.000000D+00  E=-7.650364D-01

 Vector   27  Occ=1.000000D+00  E=-7.521357D-01

 Vector   28  Occ=1.000000D+00  E=-7.514730D-01

 Vector   29  Occ=1.000000D+00  E=-7.408830D-01

 Vector   30  Occ=1.000000D+00  E=-7.171806D-01

 Vector   31  Occ=1.000000D+00  E=-7.134280D-01

 Vector   32  Occ=1.000000D+00  E=-7.071630D-01

 Vector   33  Occ=1.000000D+00  E=-6.984816D-01

 Vector   34  Occ=1.000000D+00  E=-6.938781D-01

 Vector   35  Occ=1.000000D+00  E=-6.919251D-01

 Vector   36  Occ=1.000000D+00  E=-6.703118D-01

 Vector   37  Occ=1.000000D+00  E=-6.133593D-01

 Vector   38  Occ=1.000000D+00  E=-5.097925D-01

 Vector   39  Occ=1.000000D+00  E=-4.983083D-01

 Vector   40  Occ=0.000000D+00  E=-4.122984D-03

 Vector   41  Occ=0.000000D+00  E= 5.993042D-02

 Vector   42  Occ=0.000000D+00  E= 6.785542D-02

 Vector   43  Occ=0.000000D+00  E= 7.332845D-02

 Vector   44  Occ=0.000000D+00  E= 8.807968D-02

 Vector   45  Occ=0.000000D+00  E= 9.065237D-02

 Vector   46  Occ=0.000000D+00  E= 1.075275D-01

 Vector   47  Occ=0.000000D+00  E= 1.092230D-01

 Vector   48  Occ=0.000000D+00  E= 1.141733D-01

 Vector   49  Occ=0.000000D+00  E= 1.236524D-01

 Vector   50  Occ=0.000000D+00  E= 1.322430D-01

 Vector   51  Occ=0.000000D+00  E= 1.497402D-01

 Vector   52  Occ=0.000000D+00  E= 1.841756D-01

 Vector   53  Occ=0.000000D+00  E= 1.986574D-01

 Vector   54  Occ=0.000000D+00  E= 2.131532D-01

 Vector   55  Occ=0.000000D+00  E= 2.275210D-01

 Vector   56  Occ=0.000000D+00  E= 2.331080D-01

 Vector   57  Occ=0.000000D+00  E= 2.411016D-01

 Vector   58  Occ=0.000000D+00  E= 2.518796D-01

 Vector   59  Occ=0.000000D+00  E= 2.751063D-01

 Vector   60  Occ=0.000000D+00  E= 2.805103D-01

 Vector   61  Occ=0.000000D+00  E= 2.911853D-01

 Vector   62  Occ=0.000000D+00  E= 3.012335D-01

 Vector   63  Occ=0.000000D+00  E= 3.090787D-01

 Vector   64  Occ=0.000000D+00  E= 3.212754D-01

 Vector   65  Occ=0.000000D+00  E= 3.227247D-01

 Vector   66  Occ=0.000000D+00  E= 3.288321D-01

 Vector   67  Occ=0.000000D+00  E= 3.364107D-01

 Vector   68  Occ=0.000000D+00  E= 3.405620D-01

 Vector   69  Occ=0.000000D+00  E= 3.525748D-01

 Vector   70  Occ=0.000000D+00  E= 3.580893D-01

 Vector   71  Occ=0.000000D+00  E= 3.604316D-01

 Vector   72  Occ=0.000000D+00  E= 3.624337D-01

 Vector   73  Occ=0.000000D+00  E= 3.723245D-01

 Vector   74  Occ=0.000000D+00  E= 3.784308D-01

 Vector   75  Occ=0.000000D+00  E= 3.867161D-01

 Vector   76  Occ=0.000000D+00  E= 3.900969D-01

 Vector   77  Occ=0.000000D+00  E= 3.937489D-01

 Vector   78  Occ=0.000000D+00  E= 4.068982D-01

 Vector   79  Occ=0.000000D+00  E= 4.138855D-01

 Vector   80  Occ=0.000000D+00  E= 4.248834D-01

 Vector   81  Occ=0.000000D+00  E= 4.299216D-01

 Vector   82  Occ=0.000000D+00  E= 4.428038D-01

 Vector   83  Occ=0.000000D+00  E= 4.517091D-01

 Vector   84  Occ=0.000000D+00  E= 4.892374D-01

 Vector   85  Occ=0.000000D+00  E= 4.937324D-01

 Vector   86  Occ=0.000000D+00  E= 5.147553D-01

       Multipole analysis of the density wrt the origin
       ------------------------------------------------

     L   x y z        total         alpha         beta         nuclear
     -   - - -        -----         -----         ----         -------
     0   0 0 0      0.000000    -40.000000    -39.000000     79.000000

     1   1 0 0      0.709973   -760.731238   -740.041380   1501.482591
     1   0 1 0     -0.288667   -732.952360   -710.742516   1443.406209
     1   0 0 1      0.216606   -744.794861   -727.072957   1472.084424

     2   2 0 0    -14.851930 -14599.987685 -14170.472310  28755.608065
     2   1 1 0     10.215809 -13939.444013 -13479.986078  27429.645900
     2   1 0 1     16.480155 -14166.442247 -13799.650969  27982.573370
     2   0 2 0    -52.329284 -13736.722550 -13242.736340  26927.129606
     2   0 1 1      0.265813 -13642.254726 -13249.021509  26891.542047

 Total times  cpu:       59.1s     wall:       44.7s
