============================== echo of input deck ==============================
echo
start mol
title "mol"

geometry nocenter noautosym noautoz
  load mol.xyz
end

charge 1

basis noprint
  * library aug-cc-pVDZ
end

scf
  tol2e 1d-9
  uhf
  doublet
  vectors output hBN_q1.movecs
end

task scf
================================================================================

 Output coordinates in angstroms (scale by  1.889725989 to convert to a.u.)

  No.       Tag          Charge          X              Y              Z
 ---- ---------------- ---------- -------------- -------------- --------------
    1 B                    5.0000     1.22482770     0.70544183     1.66529624
    2 B                    5.0000     2.49140751     2.87636472     1.66529684
    3 B                    5.0000     3.74530248     5.04643127     1.66529433
    4 B                    5.0000     5.00798132     7.21225089     1.66530404
    5 B                    5.0000     2.48158570    -1.47534515     1.66529866
    6 B                    5.0000     3.74880085     0.70058716     1.66530343
    7 B                    5.0000     5.00798111     2.87350095     1.66530096
    8 B                    5.0000     6.27065482     5.04643257     1.66529704
    9 B                    5.0000     3.74173256    -3.65700657     1.66530600
   10 B                    5.0000     5.00798045    -1.47635644     1.66530790
   11 B                    5.0000     6.26716131     0.70058546     1.66530136
   12 B                    5.0000     7.52455436     2.87636666     1.66530766
   13 B                    5.0000     5.00797940    -5.84681900     1.66529448
   14 B                    5.0000     6.27422590    -3.65700672     1.66530167
   15 B                    5.0000     7.53437664    -1.47534786     1.66530437
   16 B                    5.0000     8.79113364     0.70544180     1.66529219
   17 N                    7.0000     1.24878696    -0.71397687     1.66529781
   18 N                    7.0000     2.48509243     1.43891551     1.66530106
   19 N                    7.0000     3.74546531     3.60800576     1.66530124
   20 N                    7.0000     5.00797787     5.78068557     1.66529559
   21 N                    7.0000     2.50945823    -2.90507739     1.66529702
   22 N                    7.0000     3.74755820    -0.74286156     1.66530094
   23 N                    7.0000     5.00798147     1.43124948     1.66530927
   24 N                    7.0000     6.27049563     3.60800730     1.66530058
   25 N                    7.0000     3.77188790    -5.08906435     1.66530437
   26 N                    7.0000     5.00797972    -2.92141036     1.66529887
   27 N                    7.0000     6.26840359    -0.74286417     1.66530059
   28 N                    7.0000     7.53086976     1.43891652     1.66530089
   29 N                    7.0000     5.00797953    -7.26663556     1.66530202
   30 N                    7.0000     6.24407118    -5.08906408     1.66529669
   31 N                    7.0000     7.50650196    -2.90507974     1.66529569
   32 N                    7.0000     8.76717448    -0.71397695     1.66530061
   33 H                    1.0000     0.36401055    -1.21981506     1.66529440
   34 H                    1.0000     1.62497219    -3.41050414     1.66530022
   35 H                    1.0000     2.88694651    -5.59241304     1.66530416
   36 H                    1.0000     5.86055485    -7.80962460     1.66530090
   37 H                    1.0000     4.15540858    -7.80963161     1.66530098
   38 H                    1.0000     7.12901467    -5.59240929     1.66530035
   39 H                    1.0000     8.39098651    -3.41050936     1.66529782
   40 H                    1.0000     9.65195205    -1.21981326     1.66529971
   41 H                    1.0000     0.18561928     1.30829811     1.66529886
   42 H                    1.0000     1.45596981     3.48444781     1.66529922
   43 H                    1.0000     2.70954649     5.65233982     1.66530124
   44 H                    1.0000     6.05516170     7.80821383     1.66530147
   45 H                    1.0000     3.96081310     7.80824008     1.66530303
   46 H                    1.0000     7.30641358     5.65233594     1.66529968
   47 H                    1.0000     8.55999109     3.48445080     1.66530294
   48 H                    1.0000     9.83034396     1.30829946     1.66530119

         Total SCF energy =  -1277.051964117253

 Vector  252  Occ=0.000000D+00  E= 3.072187D-01

 Vector  253  Occ=0.000000D+00  E= 3.093222D-01

 Vector  254  Occ=0.000000D+00  E= 3.117112D-01

 Vector  255  Occ=0.000000D+00  E= 3.126753D-01

 Vector  256  Occ=0.000000D+00  E= 3.174157D-01

 Vector  257  Occ=0.000000D+00  E= 3.180128D-01

 Vector  258  Occ=0.000000D+00  E= 3.181498D-01

 Vector  259  Occ=0.000000D+00  E= 3.185002D-01

 Vector  260  Occ=0.000000D+00  E= 3.249994D-01

 Vector  261  Occ=0.000000D+00  E= 3.284242D-01

 Vector  262  Occ=0.000000D+00  E= 3.292460D-01

 Vector  263  Occ=0.000000D+00  E= 3.299569D-01

 Vector  264  Occ=0.000000D+00  E= 3.327261D-01

 Vector  265  Occ=0.000000D+00  E= 3.328537D-01

 Vector  266  Occ=0.000000D+00  E= 3.360483D-01

 Vector  267  Occ=0.000000D+00  E= 3.427280D-01

 Vector  268  Occ=0.000000D+00  E= 3.446044D-01

 Vector  269  Occ=0.000000D+00  E= 3.447588D-01

 Vector  270  Occ=0.000000D+00  E= 3.489377D-01

 Vector  271  Occ=0.000000D+00  E= 3.492070D-01

 Vector  272  Occ=0.000000D+00  E= 3.493899D-01

 Vector  273  Occ=0.000000D+00  E= 3.531684D-01

 Vector  274  Occ=0.000000D+00  E= 3.549228D-01

 Vector  275  Occ=0.000000D+00  E= 3.577966D-01

 Vector  276  Occ=0.000000D+00  E= 3.594914D-01

 Vector  277  Occ=0.000000D+00  E= 3.604106D-01

 Vector  278  Occ=0.000000D+00  E= 3.631285D-01

 Vector  279  Occ=0.000000D+00  E= 3.642690D-01

 Vector  280  Occ=0.000000D+00  E= 3.667907D-01

 Vector  281  Occ=0.000000D+00  E= 3.718042D-01

 Vector  282  Occ=0.000000D+00  E= 3.720512D-01

 Vector  283  Occ=0.000000D+00  E= 3.738969D-01

 Vector  284  Occ=0.000000D+00  E= 3.770588D-01

 Vector  285  Occ=0.000000D+00  E= 3.781335D-01

 Vector  286  Occ=0.000000D+00  E= 3.782209D-01

 Vector  287  Occ=0.000000D+00  E= 3.786157D-01

 Vector  288  Occ=0.000000D+00  E= 3.829953D-01

 Vector  289  Occ=0.000000D+00  E= 3.870692D-01

 Vector  290  Occ=0.000000D+00  E= 3.898458D-01

 Vector  291  Occ=0.000000D+00  E= 3.918069D-01

 Vector  292  Occ=0.000000D+00  E= 3.927959D-01

 Vector  293  Occ=0.000000D+00  E= 3.961007D-01

 Vector  294  Occ=0.000000D+00  E= 3.969612D-01

 Vector  295  Occ=0.000000D+00  E= 4.020083D-01

 Vector  296  Occ=0.000000D+00  E= 4.057175D-01

 Vector  297  Occ=0.000000D+00  E= 4.081395D-01

 Vector  298  Occ=0.000000D+00  E= 4.112079D-01

 Vector  299  Occ=0.000000D+00  E= 4.138407D-01

 Vector  300  Occ=0.000000D+00  E= 4.183958D-01

 Vector  301  Occ=0.000000D+00  E= 4.190555D-01

 Vector  302  Occ=0.000000D+00  E= 4.218599D-01

 Vector  303  Occ=0.000000D+00  E= 4.227131D-01

 Vector  304  Occ=0.000000D+00  E= 4.245818D-01

 Vector  305  Occ=0.000000D+00  E= 4.305414D-01

 Vector  306  Occ=0.000000D+00  E= 4.341988D-01

 Vector  307  Occ=0.000000D+00  E= 4.349404D-01

 Vector  308  Occ=0.000000D+00  E= 4.373592D-01

 Vector  309  Occ=0.000000D+00  E= 4.407508D-01

 Vector  310  Occ=0.000000D+00  E= 4.428615D-01

 Vector  311  Occ=0.000000D+00  E= 4.466801D-01

 Vector  312  Occ=0.000000D+00  E= 4.481450D-01

 Vector  313  Occ=0.000000D+00  E= 4.533108D-01

 Vector  314  Occ=0.000000D+00  E= 4.583006D-01

 Vector  315  Occ=0.000000D+00  E= 4.597902D-01

 Vector  316  Occ=0.000000D+00  E= 4.599794D-01

 Vector  317  Occ=0.000000D+00  E= 4.640203D-01

 Vector  318  Occ=0.000000D+00  E= 4.651710D-01

 Vector  319  Occ=0.000000D+00  E= 4.664299D-01

 Vector  320  Occ=0.000000D+00  E= 4.675612D-01

 Vector  321  Occ=0.000000D+00  E= 4.706679D-01

 Vector  322  Occ=0.000000D+00  E= 4.723903D-01

 Vector  323  Occ=0.000000D+00  E= 4.736473D-01

 Vector  324  Occ=0.000000D+00  E= 4.768582D-01

 Vector  325  Occ=0.000000D+00  E= 4.805793D-01

 Vector  326  Occ=0.000000D+00  E= 4.806396D-01

 Vector  327  Occ=0.000000D+00  E= 4.874700D-01

 Vector  328  Occ=0.000000D+00  E= 4.906492D-01

 Vector  329  Occ=0.000000D+00  E= 4.988796D-01

 Vector  330  Occ=0.000000D+00  E= 5.000216D-01

 Vector  331  Occ=0.000000D+00  E= 5.019855D-01

       Multipole analysis of the density wrt the origin
       ------------------------------------------------

     L   x y z        total         alpha         beta         nuclear
     -   - - -        -----         -----         ----         -------
     0   0 0 0      1.000000   -104.000000   -103.000000    208.000000

     1   1 0 0      9.463704   -984.225916   -974.762208   1968.451828
     1   0 1 0    -13.454641     24.623784     11.564871    -49.643296
     1   0 0 1      3.146965   -327.283974   -324.137006    654.567946

     2   2 0 0    -26.108318 -11014.324182 -10923.824921  21912.040785
     2   1 1 0   -127.330871    233.032129    109.446377   -469.809376
     2   1 0 1     29.781993  -3097.321028  -3067.539042   6194.642064
     2   0 2 0     29.347532  -5062.723388  -4888.141695   9980.212615
     2   0 1 1    -42.341335     77.490158     36.394167   -156.225660

 Total times  cpu:     1566.4s     wall:     1560.2s
