============================== echo of input deck ==============================
echo
start mol
title "mol"

geometry nocenter noautosym noautoz
  load mol.xyz
end

charge -1

basis noprint
  * library aug-cc-pVDZ
end

scf
  tol2e 1d-9
  uhf
  singlet
  vectors output PFCA_q_1.movecs
end

task scf
================================================================================

 Output coordinates in angstroms (scale by  1.889725989 to convert to a.u.)

  No.       Tag          Charge          X              Y              Z
 ---- ---------------- ---------- -------------- -------------- --------------
    1 C                    6.0000    10.07462943     8.62050732     9.54279851
    2 C                    6.0000    10.06851448     9.88635113    10.43414452
    3 C                    6.0000    10.01311797    11.22185646     9.60469835
    4 F                    9.0000    11.11467919     8.65438072     8.68497095
    5 F                    9.0000    10.18176452     7.50106846    10.28788860
    6 F                    9.0000     8.93786232     8.53651147     8.82459485
    7 F                    9.0000     8.99118069     9.77453825    11.27509892
    8 F                    9.0000    11.19217652     9.82516806    11.21496522
    9 O                    8.0000    11.12397188    11.74172856     9.35843542
   10 O                    8.0000     8.86210100    11.58446358     9.27217865

         Total SCF energy =   -760.688400896353

 Vector   47  Occ=0.000000D+00  E= 2.427602D-01

 Vector   48  Occ=0.000000D+00  E= 2.464239D-01

 Vector   49  Occ=0.000000D+00  E= 2.631940D-01

 Vector   50  Occ=0.000000D+00  E= 2.730612D-01

 Vector   51  Occ=0.000000D+00  E= 3.203030D-01

 Vector   52  Occ=0.000000D+00  E= 3.319992D-01

 Vector   53  Occ=0.000000D+00  E= 3.412712D-01

 Vector   54  Occ=0.000000D+00  E= 3.606206D-01

 Vector   55  Occ=0.000000D+00  E= 3.824832D-01

 Vector   56  Occ=0.000000D+00  E= 3.905700D-01

 Vector   57  Occ=0.000000D+00  E= 3.962747D-01

 Vector   58  Occ=0.000000D+00  E= 4.081130D-01

 Vector   59  Occ=0.000000D+00  E= 4.149813D-01

 Vector   60  Occ=0.000000D+00  E= 4.337889D-01

 Vector   61  Occ=0.000000D+00  E= 4.364212D-01

 Vector   62  Occ=0.000000D+00  E= 4.610419D-01

 Vector   63  Occ=0.000000D+00  E= 4.671275D-01

 Vector   64  Occ=0.000000D+00  E= 4.698163D-01

 Vector   65  Occ=0.000000D+00  E= 4.743003D-01

 Vector   66  Occ=0.000000D+00  E= 4.776334D-01

 Vector   67  Occ=0.000000D+00  E= 4.830172D-01

 Vector   68  Occ=0.000000D+00  E= 4.947919D-01

 Vector   69  Occ=0.000000D+00  E= 4.977038D-01

 Vector   70  Occ=0.000000D+00  E= 5.055177D-01

 Vector   15  Occ=1.000000D+00  E=-1.475172D+00

 Vector   16  Occ=1.000000D+00  E=-1.216474D+00

 Vector   17  Occ=1.000000D+00  E=-1.116447D+00

 Vector   18  Occ=1.000000D+00  E=-9.287964D-01

 Vector   19  Occ=1.000000D+00  E=-8.086606D-01

 Vector   20  Occ=1.000000D+00  E=-7.190236D-01

 Vector   21  Occ=1.000000D+00  E=-7.084859D-01

 Vector   22  Occ=1.000000D+00  E=-7.064113D-01

 Vector   23  Occ=1.000000D+00  E=-6.584713D-01

 Vector   24  Occ=1.000000D+00  E=-6.276941D-01

 Vector   25  Occ=1.000000D+00  E=-5.900993D-01

 Vector   26  Occ=1.000000D+00  E=-5.887318D-01

 Vector   27  Occ=1.000000D+00  E=-5.772460D-01

 Vector   28  Occ=1.000000D+00  E=-5.510238D-01

 Vector   29  Occ=1.000000D+00  E=-5.481072D-01

 Vector   30  Occ=1.000000D+00  E=-5.393700D-01

 Vector   31  Occ=1.000000D+00  E=-5.338369D-01

 Vector   32  Occ=1.000000D+00  E=-5.320611D-01

 Vector   33  Occ=1.000000D+00  E=-5.004026D-01

 Vector   34  Occ=1.000000D+00  E=-4.746321D-01

 Vector   35  Occ=1.000000D+00  E=-4.356939D-01

 Vector   36  Occ=1.000000D+00  E=-4.287275D-01

 Vector   37  Occ=1.000000D+00  E=-3.887885D-01

 Vector   38  Occ=1.000000D+00  E=-2.523205D-01

 Vector   39  Occ=1.000000D+00  E=-2.504206D-01

 Vector   40  Occ=1.000000D+00  E=-2.283608D-01

 Vector   41  Occ=0.000000D+00  E= 1.688347D-01

 Vector   42  Occ=0.000000D+00  E= 1.859950D-01

 Vector   43  Occ=0.000000D+00  E= 2.022815D-01

 Vector   44  Occ=0.000000D+00  E= 2.056008D-01

 Vector   45  Occ=0.000000D+00  E= 2.241627D-01

 Vector   46  Occ=0.000000D+00  E= 2.366204D-01

 Vector   47  Occ=0.000000D+00  E= 2.427602D-01

 Vector   48  Occ=0.000000D+00  E= 2.464239D-01

 Vector   49  Occ=0.000000D+00  E= 2.631940D-01

 Vector   50  Occ=0.000000D+00  E= 2.730612D-01

 Vector   51  Occ=0.000000D+00  E= 3.203030D-01

 Vector   52  Occ=0.000000D+00  E= 3.319992D-01

 Vector   53  Occ=0.000000D+00  E= 3.412712D-01

 Vector   54  Occ=0.000000D+00  E= 3.606206D-01

 Vector   55  Occ=0.000000D+00  E= 3.824832D-01

 Vector   56  Occ=0.000000D+00  E= 3.905700D-01

 Vector   57  Occ=0.000000D+00  E= 3.962747D-01

 Vector   58  Occ=0.000000D+00  E= 4.081130D-01

 Vector   59  Occ=0.000000D+00  E= 4.149813D-01

 Vector   60  Occ=0.000000D+00  E= 4.337889D-01

 Vector   61  Occ=0.000000D+00  E= 4.364212D-01

 Vector   62  Occ=0.000000D+00  E= 4.610419D-01

 Vector   63  Occ=0.000000D+00  E= 4.671275D-01

 Vector   64  Occ=0.000000D+00  E= 4.698163D-01

 Vector   65  Occ=0.000000D+00  E= 4.743003D-01

 Vector   66  Occ=0.000000D+00  E= 4.776334D-01

 Vector   67  Occ=0.000000D+00  E= 4.830172D-01

 Vector   68  Occ=0.000000D+00  E= 4.947919D-01

 Vector   69  Occ=0.000000D+00  E= 4.977038D-01

 Vector   70  Occ=0.000000D+00  E= 5.055177D-01

       Multipole analysis of the density wrt the origin
       ------------------------------------------------

     L   x y z        total         alpha         beta         nuclear
     -   - - -        -----         -----         ----         -------
     0   0 0 0     -1.000000    -40.000000    -40.000000     79.000000

     1   1 0 0    -18.920893   -760.234526   -760.234526   1501.548158
     1   0 1 0    -21.036498   -732.022084   -732.022084   1443.007670
     1   0 0 1    -18.008888   -745.168394   -745.168394   1472.327900

     2   2 0 0   -407.160676 -14587.495763 -14587.495763  28767.830850
     2   1 1 0   -398.256006 -13910.519547 -13910.519547  27422.783089
     2   1 0 1   -341.122483 -14165.291284 -14165.291284  27989.460084
     2   0 2 0   -491.082922 -13689.616120 -13689.616120  26888.149319
     2   0 1 1   -376.150473 -13633.402529 -13633.402529  26890.654584

 Total times  cpu:       13.8s     wall:       10.1s
