============================== echo of input deck ==============================
echo
start mol
title "mol"

geometry nocenter noautosym noautoz
  load mol.xyz
end

charge 0

basis noprint
  * library aug-cc-pVDZ
end

scf
  tol2e 1d-9
  uhf
  singlet
  vectors output hBN_q0.movecs
end

task scf
================================================================================

 Output coordinates in angstroms (scale by  1.889725989 to convert to a.u.)

  No.       Tag          Charge          X              Y              Z
 ---- ---------------- ---------- -------------- -------------- --------------
    1 B                    5.0000     1.22482770     0.70544183     1.66529624
    2 B                    5.0000     2.49140751     2.87636472     1.66529684
    3 B                    5.0000     3.74530248     5.04643127     1.66529433
    4 B                    5.0000     5.00798132     7.21225089     1.66530404
    5 B                    5.0000     2.48158570    -1.47534515     1.66529866
    6 B                    5.0000     3.74880085     0.70058716     1.66530343
    7 B                    5.0000     5.00798111     2.87350095     1.66530096
    8 B                    5.0000     6.27065482     5.04643257     1.66529704
    9 B                    5.0000     3.74173256    -3.65700657     1.66530600
   10 B                    5.0000     5.00798045    -1.47635644     1.66530790
   11 B                    5.0000     6.26716131     0.70058546     1.66530136
   12 B                    5.0000     7.52455436     2.87636666     1.66530766
   13 B                    5.0000     5.00797940    -5.84681900     1.66529448
   14 B                    5.0000     6.27422590    -3.65700672     1.66530167
   15 B                    5.0000     7.53437664    -1.47534786     1.66530437
   16 B                    5.0000     8.79113364     0.70544180     1.66529219
   17 N                    7.0000     1.24878696    -0.71397687     1.66529781
   18 N                    7.0000     2.48509243     1.43891551     1.66530106
   19 N                    7.0000     3.74546531     3.60800576     1.66530124
   20 N                    7.0000     5.00797787     5.78068557     1.66529559
   21 N                    7.0000     2.50945823    -2.90507739     1.66529702
   22 N                    7.0000     3.74755820    -0.74286156     1.66530094
   23 N                    7.0000     5.00798147     1.43124948     1.66530927
   24 N                    7.0000     6.27049563     3.60800730     1.66530058
   25 N                    7.0000     3.77188790    -5.08906435     1.66530437
   26 N                    7.0000     5.00797972    -2.92141036     1.66529887
   27 N                    7.0000     6.26840359    -0.74286417     1.66530059
   28 N                    7.0000     7.53086976     1.43891652     1.66530089
   29 N                    7.0000     5.00797953    -7.26663556     1.66530202
   30 N                    7.0000     6.24407118    -5.08906408     1.66529669
   31 N                    7.0000     7.50650196    -2.90507974     1.66529569
   32 N                    7.0000     8.76717448    -0.71397695     1.66530061
   33 H                    1.0000     0.36401055    -1.21981506     1.66529440
   34 H                    1.0000     1.62497219    -3.41050414     1.66530022
   35 H                    1.0000     2.88694651    -5.59241304     1.66530416
   36 H                    1.0000     5.86055485    -7.80962460     1.66530090
   37 H                    1.0000     4.15540858    -7.80963161     1.66530098
   38 H                    1.0000     7.12901467    -5.59240929     1.66530035
   39 H                    1.0000     8.39098651    -3.41050936     1.66529782
   40 H                    1.0000     9.65195205    -1.21981326     1.66529971
   41 H                    1.0000     0.18561928     1.30829811     1.66529886
   42 H                    1.0000     1.45596981     3.48444781     1.66529922
   43 H                    1.0000     2.70954649     5.65233982     1.66530124
   44 H                    1.0000     6.05516170     7.80821383     1.66530147
   45 H                    1.0000     3.96081310     7.80824008     1.66530303
   46 H                    1.0000     7.30641358     5.65233594     1.66529968
   47 H                    1.0000     8.55999109     3.48445080     1.66530294
   48 H                    1.0000     9.83034396     1.30829946     1.66530119

         Total SCF energy =  -1277.360863064234

 Vector  218  Occ=0.000000D+00  E= 3.043361D-01

 Vector  219  Occ=0.000000D+00  E= 3.068472D-01

 Vector  220  Occ=0.000000D+00  E= 3.109240D-01

 Vector  221  Occ=0.000000D+00  E= 3.137776D-01

 Vector  222  Occ=0.000000D+00  E= 3.162138D-01

 Vector  223  Occ=0.000000D+00  E= 3.178984D-01

 Vector  224  Occ=0.000000D+00  E= 3.218029D-01

 Vector  225  Occ=0.000000D+00  E= 3.300487D-01

 Vector  226  Occ=0.000000D+00  E= 3.318652D-01

 Vector  227  Occ=0.000000D+00  E= 3.329567D-01

 Vector  228  Occ=0.000000D+00  E= 3.352182D-01

 Vector  229  Occ=0.000000D+00  E= 3.356450D-01

 Vector  230  Occ=0.000000D+00  E= 3.365461D-01

 Vector  231  Occ=0.000000D+00  E= 3.390007D-01

 Vector  232  Occ=0.000000D+00  E= 3.410322D-01

 Vector  233  Occ=0.000000D+00  E= 3.473274D-01

 Vector  234  Occ=0.000000D+00  E= 3.487726D-01

 Vector  235  Occ=0.000000D+00  E= 3.517836D-01

 Vector  236  Occ=0.000000D+00  E= 3.543348D-01

 Vector  237  Occ=0.000000D+00  E= 3.547074D-01

 Vector  238  Occ=0.000000D+00  E= 3.547846D-01

 Vector  239  Occ=0.000000D+00  E= 3.572098D-01

 Vector  240  Occ=0.000000D+00  E= 3.624431D-01

 Vector  241  Occ=0.000000D+00  E= 3.691832D-01

 Vector  242  Occ=0.000000D+00  E= 3.704291D-01

 Vector  243  Occ=0.000000D+00  E= 3.717339D-01

 Vector  244  Occ=0.000000D+00  E= 3.723122D-01

 Vector  245  Occ=0.000000D+00  E= 3.731837D-01

 Vector  246  Occ=0.000000D+00  E= 3.752492D-01

 Vector  247  Occ=0.000000D+00  E= 3.762263D-01

 Vector  248  Occ=0.000000D+00  E= 3.807503D-01

 Vector  249  Occ=0.000000D+00  E= 3.816939D-01

 Vector  250  Occ=0.000000D+00  E= 3.840581D-01

 Vector  251  Occ=0.000000D+00  E= 3.848108D-01

 Vector  252  Occ=0.000000D+00  E= 3.898587D-01

 Vector  253  Occ=0.000000D+00  E= 3.963383D-01

 Vector  254  Occ=0.000000D+00  E= 3.992376D-01

 Vector  255  Occ=0.000000D+00  E= 4.023766D-01

 Vector  256  Occ=0.000000D+00  E= 4.057318D-01

 Vector  257  Occ=0.000000D+00  E= 4.062702D-01

 Vector  258  Occ=0.000000D+00  E= 4.068219D-01

 Vector  259  Occ=0.000000D+00  E= 4.080363D-01

 Vector  260  Occ=0.000000D+00  E= 4.105261D-01

 Vector  261  Occ=0.000000D+00  E= 4.149490D-01

 Vector  262  Occ=0.000000D+00  E= 4.177011D-01

 Vector  263  Occ=0.000000D+00  E= 4.189611D-01

 Vector  264  Occ=0.000000D+00  E= 4.211708D-01

 Vector  265  Occ=0.000000D+00  E= 4.228091D-01

 Vector  266  Occ=0.000000D+00  E= 4.247770D-01

 Vector  267  Occ=0.000000D+00  E= 4.273801D-01

 Vector  268  Occ=0.000000D+00  E= 4.350065D-01

 Vector  269  Occ=0.000000D+00  E= 4.369439D-01

 Vector  270  Occ=0.000000D+00  E= 4.374410D-01

 Vector  271  Occ=0.000000D+00  E= 4.395374D-01

 Vector  272  Occ=0.000000D+00  E= 4.396730D-01

 Vector  273  Occ=0.000000D+00  E= 4.414967D-01

 Vector  274  Occ=0.000000D+00  E= 4.438838D-01

 Vector  275  Occ=0.000000D+00  E= 4.492851D-01

 Vector  276  Occ=0.000000D+00  E= 4.493710D-01

 Vector  277  Occ=0.000000D+00  E= 4.531682D-01

 Vector  278  Occ=0.000000D+00  E= 4.542712D-01

 Vector  279  Occ=0.000000D+00  E= 4.585146D-01

 Vector  280  Occ=0.000000D+00  E= 4.590860D-01

 Vector  281  Occ=0.000000D+00  E= 4.619612D-01

 Vector  282  Occ=0.000000D+00  E= 4.633564D-01

 Vector  283  Occ=0.000000D+00  E= 4.723387D-01

 Vector  284  Occ=0.000000D+00  E= 4.735373D-01

 Vector  285  Occ=0.000000D+00  E= 4.764440D-01

 Vector  286  Occ=0.000000D+00  E= 4.773474D-01

 Vector  287  Occ=0.000000D+00  E= 4.808006D-01

 Vector  288  Occ=0.000000D+00  E= 4.856768D-01

 Vector  289  Occ=0.000000D+00  E= 4.868099D-01

 Vector  290  Occ=0.000000D+00  E= 4.876300D-01

 Vector  291  Occ=0.000000D+00  E= 4.886064D-01

 Vector  292  Occ=0.000000D+00  E= 4.903901D-01

 Vector  293  Occ=0.000000D+00  E= 4.926995D-01

 Vector  294  Occ=0.000000D+00  E= 4.928099D-01

 Vector  295  Occ=0.000000D+00  E= 4.947624D-01

 Vector  296  Occ=0.000000D+00  E= 4.991763D-01

 Vector  297  Occ=0.000000D+00  E= 5.005529D-01

       Multipole analysis of the density wrt the origin
       ------------------------------------------------

     L   x y z        total         alpha         beta         nuclear
     -   - - -        -----         -----         ----         -------
     0   0 0 0     -0.000000   -104.000000   -104.000000    208.000000

     1   1 0 0     -0.000006   -984.225917   -984.225917   1968.451828
     1   0 1 0     -2.940978     23.351159     23.351159    -49.643296
     1   0 0 1      0.000002   -327.283972   -327.283972    654.567946

     2   2 0 0   -126.293613 -11019.167199 -11019.167199  21912.040785
     2   1 1 0    -27.832619    220.988378    220.988378   -469.809376
     2   1 0 1      0.000049  -3097.321007  -3097.321007   6194.642064
     2   0 2 0   -128.556267  -5054.384441  -5054.384441   9980.212615
     2   0 1 1     -9.255216     73.485222     73.485222   -156.225660

 Total times  cpu:      887.6s     wall:      884.5s
